# Force and moment coefficients
# dragDir               : (1.0000000000000000e+00 0.0000000000000000e+00 0.0000000000000000e+00)
# sideDir               : (0.0000000000000000e+00 1.0000000000000000e+00 0.0000000000000000e+00)
# liftDir               : (0.0000000000000000e+00 0.0000000000000000e+00 1.0000000000000000e+00)
# rollAxis              : (1.0000000000000000e+00 0.0000000000000000e+00 0.0000000000000000e+00)
# pitchAxis             : (0.0000000000000000e+00 1.0000000000000000e+00 0.0000000000000000e+00)
# yawAxis               : (0.0000000000000000e+00 0.0000000000000000e+00 1.0000000000000000e+00)
# magUInf               : 3.8889000000000003e+01
# lRef                  : 2.7861799999999999e+00
# Aref                  : 2.1699999999999999e+00
# CofR                  : (1.4000900000000001e+00 0.0000000000000000e+00 -3.1759999999999999e-01)
#
# Time                  	Cd                      	Cd(f)                   	Cd(r)                   	Cl                      	Cl(f)                   	Cl(r)                   	CmPitch                 	CmRoll                  	CmYaw                   	Cs                      	Cs(f)                   	Cs(r)                   
1                       	1.0754794018462051e+00	5.3085619197902434e-01	5.4462320986718071e-01	-3.6406864575919134e-01	-1.5460913836632239e-02	-3.4860773192255912e-01	1.6657340904296344e-01	-6.8835089440782418e-03	1.1293390916021464e-02	1.0564106437176899e-02	1.6575444134609912e-02	-6.0113376974330135e-03
2                       	7.9835260646611694e-01	3.9519058475158186e-01	4.0316202171453508e-01	-4.0623585050355132e-01	-1.7077208452069206e-01	-2.3546376598285926e-01	3.2345840731083583e-02	-3.9857184814766243e-03	9.3376460584549213e-03	6.0937388675773151e-03	1.2384515492243578e-02	-6.2907766246662637e-03
3                       	4.7953714416170246e-01	2.3761109969934482e-01	2.4192604446235763e-01	-3.7016038997543843e-01	-2.2632964023874846e-01	-1.4383074973668999e-01	-4.1249445251029221e-02	-2.1574723815064038e-03	6.0035146577420229e-03	3.4815626979465141e-03	7.7442960067152797e-03	-4.2627333087687670e-03
4                       	3.2100812312169574e-01	1.5825522693447361e-01	1.6275289618722216e-01	-3.4284554030856540e-01	-2.3442770728655496e-01	-1.0841783302201044e-01	-6.3004937132272260e-02	-2.2488346263742774e-03	3.8865320721065679e-03	3.9138655932004279e-03	5.8434648687067823e-03	-1.9295992755063540e-03
5                       	2.8612647502490723e-01	1.4015654551023116e-01	1.4596992951467608e-01	-3.4948623019669711e-01	-2.4216284666245505e-01	-1.0732338353424208e-01	-6.7419731564106480e-02	-2.9066920022224594e-03	3.4247204113232212e-03	5.5464029396653826e-03	6.1979218811559116e-03	-6.5151894149053020e-04
6                       	3.1546234706348908e-01	1.5442607885942231e-01	1.6103626820406677e-01	-3.7659080754559676e-01	-2.5358772949079827e-01	-1.2300307805479854e-01	-6.5292325717999838e-02	-3.3050946723222323e-03	3.9094215261379983e-03	6.6962736269055041e-03	7.2575583395907504e-03	-5.6128471268524611e-04
7                       	3.6344399720667608e-01	1.7842008980879667e-01	1.8502390739787941e-01	-4.0384320719556605e-01	-2.6041700285290698e-01	-1.4342620434265907e-01	-5.8495399255123967e-02	-3.3019087945413764e-03	4.6782011939486886e-03	7.0088923110188236e-03	8.1826473494581008e-03	-1.1737550384392764e-03
8                       	4.0087390917309795e-01	1.9718438148390313e-01	2.0368952768919485e-01	-4.0703937683791053e-01	-2.5539974520262304e-01	-1.5163963163528746e-01	-5.1880056783667777e-02	-3.2525731026458518e-03	5.0385712873256454e-03	7.0241043802224522e-03	8.5506234774368715e-03	-1.5265190972144189e-03
9                       	4.2280225842771013e-01	2.0813181178603532e-01	2.1467044664167484e-01	-3.8607229398945864e-01	-2.4174023427247049e-01	-1.4433205971698815e-01	-4.8704087277741170e-02	-3.2693174278197738e-03	4.9389264006348766e-03	7.1215339592810151e-03	8.4996933802753832e-03	-1.3781594209943693e-03
10                      	4.3448015529619560e-01	2.1402416984066511e-01	2.2045598545553047e-01	-3.4769123179364453e-01	-2.2377203407532478e-01	-1.2391919771831977e-01	-4.9926418178502498e-02	-3.2159078074326724e-03	4.5655664711001329e-03	7.1419588111616165e-03	8.1365458766809416e-03	-9.9458706551932489e-04
11                      	4.4059744359632730e-01	2.1720261553097689e-01	2.2339482806535044e-01	-3.0140466170151886e-01	-2.0475528070802448e-01	-9.6649380993494391e-02	-5.4052949857265047e-02	-3.0961062671867748e-03	3.9584660548692323e-03	6.9828586895473443e-03	7.4498953996429054e-03	-4.6703671009556004e-04
12                      	4.4390670568787494e-01	2.1893792064776396e-01	2.2496878504011097e-01	-2.5735913618717038e-01	-1.8773415339786254e-01	-6.9624982789307885e-02	-5.9054585304277325e-02	-3.0154321961735043e-03	3.2933235872060550e-03	6.8220180914779953e-03	6.7043326329450526e-03	1.1768545853294265e-04
13                      	4.4565216586935530e-01	2.1983937324045641e-01	2.2581279262889886e-01	-2.2065638318702507e-01	-1.7299626229750467e-01	-4.7660120889520416e-02	-6.2668070703992121e-02	-2.9867096942212145e-03	2.6890293851729798e-03	6.6374577083454607e-03	6.0077582393457101e-03	6.2969946899975055e-04
14                      	4.4583694028236348e-01	2.1996479337344910e-01	2.2587214690891438e-01	-1.9483724818136852e-01	-1.6084275721561977e-01	-3.3994490965748761e-02	-6.3424133124935500e-02	-2.9536767677326397e-03	2.1200583473021304e-03	6.3737570182737634e-03	5.3069368564390117e-03	1.0668201618347511e-03
15                      	4.4507877017054354e-01	2.1970379375803747e-01	2.2537497641250606e-01	-1.7875184030462718e-01	-1.5169310631245594e-01	-2.7058733992171246e-02	-6.2317186160142347e-02	-2.8355913272342780e-03	1.7019765326247865e-03	6.0582566026597152e-03	4.7311048339546439e-03	1.3271517687050711e-03
16                      	4.4400808990333135e-01	2.1933589071765267e-01	2.2467219918567866e-01	-1.6939670528336589e-01	-1.4496016083952304e-01	-2.4436544443842866e-02	-6.0261808197840078e-02	-2.6681542340130085e-03	1.5951425425183756e-03	5.6865102986940223e-03	4.4383976918653863e-03	1.2481126068286353e-03
17                      	4.4305660477005032e-01	2.1908295069805975e-01	2.2397365407199060e-01	-1.6040867582686882e-01	-1.3902336249123345e-01	-2.1385313335635384e-02	-5.8819024577799028e-02	-2.4453516869654230e-03	1.6572097607189321e-03	5.3247587124367135e-03	4.3195891169372893e-03	1.0051695954994245e-03
18                      	4.4212814678408341e-01	2.1887526319546136e-01	2.2325288358862205e-01	-1.4765181590997215e-01	-1.3259124645460596e-01	-1.5060569455366180e-02	-5.8765338499619887e-02	-2.1888101965803456e-03	1.7574451433971904e-03	4.9261027902786671e-03	4.2204965385365233e-03	7.0560625174214298e-04
19                      	4.4126370938216775e-01	2.1869357149973215e-01	2.2257013788243560e-01	-1.2983570977203845e-01	-1.2506496658310073e-01	-4.7707431889377067e-03	-6.0147111697081521e-02	-1.9382831913517214e-03	1.9140272612258242e-03	4.5821416155537066e-03	4.2050980690026777e-03	3.7704354655102891e-04
20                      	4.4102865981802292e-01	2.1879971962766517e-01	2.2222894019035772e-01	-1.0771111833084904e-01	-1.1598488793151690e-01	8.2737696006678560e-03	-6.2129328766092375e-02	-1.7146102813462556e-03	2.0603653881104125e-03	4.2973068169734844e-03	4.2090187965971556e-03	8.8288020376329875e-05
21                      	4.4131140765881816e-01	2.1907042933863899e-01	2.2224097832017917e-01	-8.2431344169450929e-02	-1.0534449054150320e-01	2.2913146372052277e-02	-6.4128818456777745e-02	-1.5852744907700785e-03	2.2343417540303377e-03	4.0579330222916500e-03	4.2633082651761627e-03	-2.0537524288451257e-04
22                      	4.4154704514077103e-01	2.1918917767394638e-01	2.2235786746682465e-01	-5.6692423930374665e-02	-9.4001497338913859e-02	3.7309073408539194e-02	-6.5655285373726530e-02	-1.5843448964391544e-03	2.4405436854411729e-03	3.9607080644999126e-03	4.4208977176911296e-03	-4.6018965319121678e-04
23                      	4.4139398790896300e-01	2.1907407557534869e-01	2.2231991233361428e-01	-3.2744632328771429e-02	-8.2796639094038726e-02	5.0052006765267297e-02	-6.6424322929653015e-02	-1.6229183791327819e-03	2.6422753269295003e-03	4.1365612046309957e-03	4.7105559292449986e-03	-5.7399472461400246e-04
24                      	4.4054351056097885e-01	2.1851673835462510e-01	2.2202677220635375e-01	-9.8774509268562266e-03	-7.1704722361535661e-02	6.1827271434679448e-02	-6.6765996898107555e-02	-1.7550169258643243e-03	2.8464378017746565e-03	5.0455737489945767e-03	5.3692246762719444e-03	-3.2365092727736820e-04
25                      	4.3944038414208975e-01	2.1768045125438332e-01	2.2175993288770643e-01	1.1382264715948959e-02	-6.1372967786199356e-02	7.2755232502148326e-02	-6.7064100144173841e-02	-2.0397408166615556e-03	3.1146098640041052e-03	6.8103049371237932e-03	6.5197623325660018e-03	2.9054260455779133e-04
26                      	4.3888925436822718e-01	2.1695875339054430e-01	2.2193050097768288e-01	3.0152415094270246e-02	-5.2980088195707369e-02	8.3132503289977608e-02	-6.8056295742842485e-02	-2.4858737935692893e-03	3.4580308345489833e-03	8.9027880061197124e-03	7.9094248376088399e-03	9.9336316851087250e-04
27                      	4.3897170520576245e-01	2.1642869866874659e-01	2.2254300653701586e-01	4.5295070196748090e-02	-4.6915005667469756e-02	9.2210075864217853e-02	-6.9562540765843797e-02	-3.0571539341346255e-03	3.8457589732006589e-03	1.0977944538763627e-02	9.3347312425824721e-03	1.6432132961811548e-03
28                      	4.3903179977875012e-01	2.1588422255558748e-01	2.2314757722316267e-01	5.3972858219213875e-02	-4.4068424959188557e-02	9.8041283178402425e-02	-7.1054854068795484e-02	-3.6316773337876068e-03	4.2228622124787238e-03	1.2729585138360169e-02	1.0587654781658807e-02	2.1419303567013605e-03
29                      	4.3918759444659095e-01	2.1559688899462970e-01	2.2359070545196122e-01	5.5734065565395403e-02	-4.4818086987509720e-02	1.0055215255290513e-01	-7.2685119770207418e-02	-3.9969082286657439e-03	4.5285471676879459e-03	1.3906424088790148e-02	1.1481759212083021e-02	2.4246648767071279e-03
30                      	4.3923313329765379e-01	2.1556125131305034e-01	2.2367188198460344e-01	5.3102624439180610e-02	-4.7598794314168386e-02	1.0070141875334900e-01	-7.4150106533758697e-02	-4.0553153357765666e-03	4.4960302996023662e-03	1.4103950472498950e-02	1.1548005535851842e-02	2.5559449366471081e-03
31                      	4.3877850134252588e-01	2.1549244078688184e-01	2.2328606055564407e-01	4.7801952477238750e-02	-5.1234162035115605e-02	9.9036114512354348e-02	-7.5135138273734983e-02	-3.8968098843811107e-03	3.9721296298811043e-03	1.3352570214224512e-02	1.0648414736993361e-02	2.7041554772311528e-03
32                      	4.3759043806263870e-01	2.1513027754917352e-01	2.2246016051346520e-01	4.0226474116643283e-02	-5.5418740546706230e-02	9.5645214663349520e-02	-7.5531977605027875e-02	-3.6649414821458420e-03	3.1621241020361969e-03	1.1841765719605714e-02	9.0830069618390540e-03	2.7587587577666598e-03
33                      	4.3582935510115606e-01	2.1445412013680407e-01	2.2137523496435199e-01	3.2613237491043945e-02	-5.8840893008607176e-02	9.1454130499651121e-02	-7.5147511754129148e-02	-3.4605574137739630e-03	2.2725000705492568e-03	1.0146029477311930e-02	7.3455148092052220e-03	2.8005146681067080e-03
34                      	4.3378242936278366e-01	2.1362713615220674e-01	2.2015529321057692e-01	2.9007491490409390e-02	-5.9712073452637009e-02	8.8719564943046406e-02	-7.4215819197841718e-02	-3.2640785291850917e-03	1.4264444129870838e-03	8.5931139365972246e-03	5.7230013812856967e-03	2.8701125553115287e-03
35                      	4.3184519414474676e-01	2.1290433084096907e-01	2.1894086330377766e-01	3.0154591720424530e-02	-5.7862976758882786e-02	8.8017568479307320e-02	-7.2940272619095053e-02	-3.0182662314042997e-03	7.3416155619103896e-04	7.3394555006614758e-03	4.4038893065217770e-03	2.9355661941396988e-03
36                      	4.3066353915869504e-01	2.1272672527843348e-01	2.1793681388026157e-01	3.4648859522682963e-02	-5.3952333210083039e-02	8.8601192732766010e-02	-7.1276762971424518e-02	-2.6050443009140419e-03	3.6187519722462005e-05	6.2079114929121893e-03	3.1401432661785568e-03	3.0677682267336330e-03
37                      	4.3049805904672667e-01	2.1312891939765002e-01	2.1736913964907661e-01	3.9394577254958298e-02	-4.9942550490035077e-02	8.9337127744993389e-02	-6.9639839117514230e-02	-2.1201101257132772e-03	-6.0591858413317217e-04	4.9534470568800854e-03	1.8708049443068705e-03	3.0826421125732147e-03
38                      	4.3119966998822734e-01	2.1383781481889896e-01	2.1736185516932835e-01	4.1308423882215270e-02	-4.7601178825108247e-02	8.8909602707323523e-02	-6.8255390766215882e-02	-1.7620201752147067e-03	-1.1812257065266305e-03	3.5849816073635532e-03	6.1126509715514628e-04	2.9737165102084072e-03
39                      	4.3238253399407173e-01	2.1453458181989832e-01	2.1784795217417344e-01	3.9387184823066433e-02	-4.7410140951668941e-02	8.6797325774735368e-02	-6.7103733363202148e-02	-1.6566851771375605e-03	-1.4991566090445615e-03	2.4544875033949312e-03	-2.7191285734709601e-04	2.7264003607420273e-03
40                      	4.3386074334746794e-01	2.1520901360955555e-01	2.1865172973791239e-01	3.4607243304826514e-02	-4.8296270697295356e-02	8.2903514002121856e-02	-6.5599892349708602e-02	-1.7213580641784242e-03	-1.4597394299024791e-03	1.5638699713996997e-03	-6.7780444420262917e-04	2.2416744156023290e-03
41                      	4.3492102232210261e-01	2.1573596029693262e-01	2.1918506202516999e-01	2.9491011976122829e-02	-4.9130489057575173e-02	7.8621501033697999e-02	-6.3875995045636583e-02	-1.7245508641186723e-03	-1.1266376742483420e-03	6.9983697578183263e-04	-7.7671918635742574e-04	1.4765561621392584e-03
42                      	4.3466686509789215e-01	2.1566765772560001e-01	2.1899920737229217e-01	2.5754718484957809e-02	-5.0025967855652817e-02	7.5780686340610637e-02	-6.2903327098131720e-02	-1.6657748233460919e-03	-5.4789473951383119e-04	1.5312771415556978e-04	-4.7133088243604633e-04	6.2445859659161611e-04
43                      	4.3279594578342939e-01	2.1473629374059305e-01	2.1805965204283631e-01	2.5130617077591431e-02	-4.9858955634292379e-02	7.4989572711883806e-02	-6.2424264173088093e-02	-1.6616791511216322e-03	-1.1634144742425882e-04	3.8836000535647712e-04	7.7838555253979726e-05	3.1052145010249739e-04
44                      	4.2923690379788965e-01	2.1268552019183068e-01	2.1655138360605897e-01	2.5972756464046627e-02	-4.9126581335172441e-02	7.5099337799219068e-02	-6.2112959567195758e-02	-1.9329317071141584e-03	-2.5510374654336187e-04	1.3336277256827305e-03	4.1171011629800337e-04	9.2191760938472721e-04
45                      	4.2435435518289272e-01	2.0970996154802279e-01	2.1464439363486992e-01	2.7358667112772416e-02	-4.7873814918755871e-02	7.5232482031528297e-02	-6.1553148475142080e-02	-2.4672160434235828e-03	-9.6610649022681920e-04	2.2102506497153162e-03	1.3901883463083903e-04	2.0712318150844775e-03
46                      	4.1882201790652374e-01	2.0634858610571732e-01	2.1247343180080641e-01	3.0869690913825902e-02	-4.4475034986247622e-02	7.5344725900073531e-02	-5.9909880443160576e-02	-3.0624228475445324e-03	-1.6496917202902049e-03	2.6848296328147087e-03	-3.0727690388285061e-04	2.9921065366975592e-03
47                      	4.1318515133474643e-01	2.0316080097213940e-01	2.1002435036260700e-01	3.5978818302239951e-02	-3.8871479482969311e-02	7.4850297785209269e-02	-5.6860888634089286e-02	-3.4317746952338178e-03	-1.9501424664912068e-03	2.3755124158332391e-03	-7.6238625857458740e-04	3.1378986744078261e-03
48                      	4.0792475067110773e-01	2.0052064985446261e-01	2.0740410081664515e-01	3.9569078459307822e-02	-3.3155980941468322e-02	7.2725059400776143e-02	-5.2940520171122232e-02	-3.4417254810912771e-03	-1.8817438109937207e-03	1.3073432457791686e-03	-1.2280721881041362e-03	2.5354154338833052e-03
49                      	4.0323808897779162e-01	1.9841299224532427e-01	2.0482509673246732e-01	3.7548869278439950e-02	-3.0148068057655679e-02	6.7696937336095636e-02	-4.8922502696875654e-02	-3.2060522435715093e-03	-1.5848248050673601e-03	2.7535394574758527e-05	-1.5710571077799807e-03	1.5985925023547394e-03
50                      	3.9919982553499445e-01	1.9675900317807882e-01	2.0244082235691566e-01	2.9772488586176100e-02	-3.0344605685572575e-02	6.0117094271748682e-02	-4.5230849978660628e-02	-2.8409095894184160e-03	-9.5799311601227105e-04	-1.3220862283628771e-03	-1.6190362301937095e-03	2.9695000183083245e-04
51                      	3.9637001602307126e-01	1.9571041030927105e-01	2.0065960571380020e-01	1.8919066812018534e-02	-3.1998126247916217e-02	5.0917193059934751e-02	-4.1457659653925484e-02	-2.4745977022645636e-03	-2.6431952853243239e-05	-2.4703606529037085e-03	-1.2616122793050973e-03	-1.2087483735986110e-03
52                      	3.9457245677061814e-01	1.9508996605882625e-01	1.9948249071179189e-01	8.4068139129793700e-03	-3.3001805555325683e-02	4.1408619468305055e-02	-3.7205212511815369e-02	-2.1962623264828109e-03	9.9742199410679500e-04	-3.1612595566430451e-03	-5.8320778421472753e-04	-2.5780517724283175e-03
53                      	3.9309212945750210e-01	1.9461458583735902e-01	1.9847754362014311e-01	3.8500140095425010e-04	-3.2614591008902155e-02	3.2999592409856400e-02	-3.2807091709379274e-02	-1.9314788913920430e-03	1.8670465849284210e-03	-3.5023620018538181e-03	1.1586558400151215e-04	-3.6182275858553303e-03
54                      	3.9157604460723056e-01	1.9419744841370504e-01	1.9737859619352552e-01	-6.1606327897766044e-03	-3.1624336496857072e-02	2.5463703707080475e-02	-2.8544020101968777e-02	-1.5905738899102387e-03	2.5177349543441326e-03	-3.5791362947700314e-03	7.2816680695911686e-04	-4.3073031017291478e-03
55                      	3.8991298113428235e-01	1.9368899360044778e-01	1.9622398753383455e-01	-1.2649797495109558e-02	-3.0743995085363459e-02	1.8094197590253901e-02	-2.4419096337808678e-02	-1.2674969666933826e-03	2.9990202657447958e-03	-3.0821689328625005e-03	1.4579357993135457e-03	-4.5401047321760460e-03
56                      	3.8807706993214758e-01	1.9295970038873078e-01	1.9511736954341680e-01	-1.8964203029807777e-02	-3.0613895712786460e-02	1.1649692682978680e-02	-2.1131794197882570e-02	-1.0788345773429977e-03	3.3929331727418554e-03	-1.9559826214615547e-03	2.4149418620110778e-03	-4.3709244834726334e-03
57                      	3.8611852302140665e-01	1.9196716131688768e-01	1.9415136170451897e-01	-2.3877416199524083e-02	-3.1462968208113506e-02	7.5855520085894232e-03	-1.9524260108351465e-02	-1.0921001938156286e-03	3.7345391268461068e-03	-4.7699166457374869e-04	3.4960432945592328e-03	-3.9730349591329817e-03
58                      	3.8384551002882700e-01	1.9064297188975468e-01	1.9320253813907232e-01	-2.7156561757067238e-02	-3.3183912183588862e-02	6.0273504265216252e-03	-1.9605631305055243e-02	-1.2797831246588280e-03	3.8607691896352819e-03	1.0380003869721773e-03	4.3797693831213709e-03	-3.3417689961491933e-03
59                      	3.8113003994242223e-01	1.8904594276780456e-01	1.9208409717461766e-01	-2.8748826499315157e-02	-3.5241799528882123e-02	6.4929730295669626e-03	-2.0867386279224541e-02	-1.5190772034065661e-03	3.6237641161041782e-03	2.3067777696825884e-03	4.7771530009454721e-03	-2.4703752312628838e-03
60                      	3.7807302272113963e-01	1.8736465426430984e-01	1.9070836845682981e-01	-2.7756557075598300e-02	-3.6680412175573530e-02	8.9238550999752309e-03	-2.2802133637774381e-02	-1.6718570962599747e-03	2.9111197369184444e-03	3.1755800594566773e-03	4.4989097666467831e-03	-1.3233297071901060e-03
61                      	3.7471498380388885e-01	1.8567493699356233e-01	1.8904004681032652e-01	-2.4215725906400424e-02	-3.7116150707653769e-02	1.2900424801253347e-02	-2.5008287754453559e-02	-1.6825549083821080e-03	1.8261950410577929e-03	3.5346226104634466e-03	3.5935063462895164e-03	-5.8883735826069738e-05
62                      	3.7140359957088237e-01	1.8410175381907562e-01	1.8730184575180672e-01	-1.8596898558202887e-02	-3.6941595424460197e-02	1.8344696866257310e-02	-2.7643146145358753e-02	-1.6000459663655514e-03	6.3981158398832547e-04	3.3755163336075871e-03	2.3275697507921188e-03	1.0479465828154681e-03
63                      	3.6836099855163512e-01	1.8273639797203317e-01	1.8562460057960195e-01	-1.1410247085111569e-02	-3.7146778905948696e-02	2.5736531820837127e-02	-3.1441655363392912e-02	-1.4441013037843919e-03	-5.1542976128443065e-04	2.8878642002013780e-03	9.2850233881625846e-04	1.9593618613851201e-03
64                      	3.6552558577702821e-01	1.8155882226058048e-01	1.8396676351644775e-01	-3.8801391566728590e-03	-3.8735834824961048e-02	3.4855695668288195e-02	-3.6795765246624618e-02	-1.2039706279336343e-03	-1.5594832973523712e-03	2.3679903107485887e-03	-3.7548814197807702e-04	2.7434784527266653e-03
65                      	3.6327937905081786e-01	1.8076323494913787e-01	1.8251614410168002e-01	1.7662825039003467e-03	-4.2208917557037061e-02	4.3975200060937400e-02	-4.3092058808987234e-02	-8.7645457627106443e-04	-2.5198211026991463e-03	1.9659907797079466e-03	-1.5368257128451728e-03	3.5028164925531191e-03
66                      	3.6193154500455421e-01	1.8040994924072273e-01	1.8152159576383151e-01	4.2554645880065658e-03	-4.7284064982463930e-02	5.1539529570470491e-02	-4.9411797276467211e-02	-5.5582326155438372e-04	-3.3964969885615700e-03	1.6560821661789342e-03	-2.5684559054721030e-03	4.2245380716510366e-03
67                      	3.6133022328372993e-01	1.8038166657800278e-01	1.8094855670572718e-01	5.1632612458453967e-03	-5.2512274945414300e-02	5.7675536191259702e-02	-5.5093905568337001e-02	-2.8344506386219673e-04	-4.1381110180677269e-03	1.2870877200382770e-03	-3.4945671580485882e-03	4.7816548780868651e-03
68                      	3.6113901744878801e-01	1.8050885545199852e-01	1.8063016199678950e-01	8.0092478869107590e-03	-5.5654584667231687e-02	6.3663832554142430e-02	-5.9659208610687062e-02	-6.0653272395500860e-05	-4.7657742351757126e-03	8.7292713374730860e-04	-4.3293106683020589e-03	5.2022378020493672e-03
69                      	3.6117013688118649e-01	1.8066451835302821e-01	1.8050561852815827e-01	1.5059652883155882e-02	-5.5192758817490077e-02	7.0252411700645959e-02	-6.2722585259068014e-02	7.9449912434964137e-05	-5.1802170847697121e-03	5.3898427778464267e-04	-4.9107249458773912e-03	5.4497092236620338e-03
70                      	3.6138585539796719e-01	1.8081599345607485e-01	1.8056986194189231e-01	2.5831946927455784e-02	-5.1359754864447084e-02	7.7191701791902878e-02	-6.4275728328174977e-02	1.2306575709126395e-04	-5.4075416959672197e-03	4.1702039780614549e-04	-5.1990314970641474e-03	5.6160518948702928e-03
71                      	3.6185656994990800e-01	1.8099614578049733e-01	1.8086042416941070e-01	3.8230628279929867e-02	-4.5736655246367365e-02	8.3967283526297246e-02	-6.4851969386332309e-02	6.7860805543308426e-05	-5.5588248214400223e-03	4.6914289242925601e-04	-5.3242533752253943e-03	5.7933962676546503e-03
72                      	3.6206307117078684e-01	1.8096563831977064e-01	1.8109743285101620e-01	4.9917023195256163e-02	-4.0051659992207063e-02	8.9968683187463219e-02	-6.5010171589835145e-02	-6.5897265622792705e-05	-5.6179527500490600e-03	6.4464180491198499e-04	-5.2956318475930672e-03	5.9402736525050528e-03
73                      	3.6132033717646778e-01	1.8036603351550018e-01	1.8095430366096760e-01	5.9276339105000915e-02	-3.5459666852113998e-02	9.4736005957114927e-02	-6.5097836404614459e-02	-2.9413507273370280e-04	-5.4842859365887443e-03	6.7094225825831122e-04	-5.1488148074595886e-03	5.8197570657178999e-03
74                      	3.5942687325816736e-01	1.7907441900029969e-01	1.8035245425786764e-01	6.6091687776179089e-02	-3.2388083160713857e-02	9.8479770936892932e-02	-6.5433927048803395e-02	-6.3901762878396942e-04	-5.2191711626634815e-03	5.6880362270263403e-04	-4.9347693513121637e-03	5.5035729740147985e-03
75                      	3.5655179141971238e-01	1.7721658221647468e-01	1.7933520920323767e-01	7.0769812532216911e-02	-3.0999868881240539e-02	1.0176968141345745e-01	-6.6384775147349001e-02	-1.0593134933814881e-03	-4.8791735457610307e-03	5.0818974789776123e-04	-4.6250786718121505e-03	5.1332684197099116e-03
76                      	3.5310204765507197e-01	1.7497781766485379e-01	1.7812422999021815e-01	7.5087001363726466e-02	-3.0483377333620963e-02	1.0557037869734744e-01	-6.8026878015484196e-02	-1.5732061626821906e-03	-4.5024638664822210e-03	8.9902576610486359e-04	-4.0529509834297895e-03	4.9519767495346534e-03
77                      	3.4947134424689058e-01	1.7264285474522206e-01	1.7682848950166855e-01	8.0651431987579542e-02	-2.9882767735474016e-02	1.1053419972305356e-01	-7.0208483729263790e-02	-2.0928173782232321e-03	-4.0979792733554397e-03	1.8315685279235079e-03	-3.1821950093936860e-03	5.0137635373171934e-03
78                      	3.4598726677076763e-01	1.7053381610958845e-01	1.7545345066117921e-01	8.7806467753627271e-02	-2.8753980733085410e-02	1.1656044848671268e-01	-7.2657214609899046e-02	-2.4598172757953761e-03	-3.5591087282597902e-03	3.0647893817565106e-03	-2.0267140373815347e-03	5.0915034191380453e-03
79                      	3.4253417350301646e-01	1.6869118058739990e-01	1.7384299291561656e-01	9.6182749331435821e-02	-2.7500392256064619e-02	1.2368314158750045e-01	-7.5591766921782530e-02	-2.5759061641083183e-03	-2.8212468480151845e-03	4.1213524369818118e-03	-7.6057062952427854e-04	4.8819230665060913e-03
80                      	3.3867538255093993e-01	1.6685570840805924e-01	1.7181967414288071e-01	1.0538851021987834e-01	-2.6574485484325422e-02	1.3196299570420375e-01	-7.9268740594264600e-02	-2.4819828674107472e-03	-1.9864556117462138e-03	4.6495393430477337e-03	3.3831405977765314e-04	4.3112252832700811e-03
81                      	3.3439425645000659e-01	1.6491395889347182e-01	1.6948029755653476e-01	1.1513300720562146e-01	-2.6095696870857155e-02	1.4122870407647864e-01	-8.3662200473667889e-02	-2.2831693315314692e-03	-1.2145309237868648e-03	4.7301909867844532e-03	1.1505645696053620e-03	3.5796264171790914e-03
82                      	3.2988666867582439e-01	1.6284965838580062e-01	1.6703701029002380e-01	1.2501177034185007e-01	-2.5576402797754437e-02	1.5058817313960451e-01	-8.8082287968679479e-02	-2.0936759521115750e-03	-5.0180871331460331e-04	4.6311559577897352e-03	1.8137692655802640e-03	2.8173866922094710e-03
83                      	3.2531579029107194e-01	1.6070458061469065e-01	1.6461120967638129e-01	1.3374862297530979e-01	-2.4605842065555550e-02	1.5835446504086531e-01	-9.1480153553210444e-02	-1.9533145308453198e-03	1.9466039476028697e-04	4.6148014984377130e-03	2.5020611439791436e-03	2.1127403544585694e-03
84                      	3.2095744593771647e-01	1.5859397465970357e-01	1.6236347127801293e-01	1.4025193025621269e-01	-2.3149561565025675e-02	1.6340149182123839e-01	-9.3275526693132021e-02	-1.8847483091546837e-03	7.9774060551711140e-04	4.7850966121647841e-03	3.1902889115995032e-03	1.5948077005652807e-03
85                      	3.1745076327034416e-01	1.5684309788039200e-01	1.6060766538995214e-01	1.4351437925470528e-01	-2.1632575637046219e-02	1.6514695489175149e-01	-9.3389765264398863e-02	-1.8822837547800733e-03	1.3055733993647739e-03	5.3072715981046193e-03	3.9592091984170831e-03	1.3480623996875358e-03
86                      	3.1523544890039956e-01	1.5573091949033263e-01	1.5950452941006690e-01	1.4192560825989128e-01	-2.1366302065439435e-02	1.6329191032533072e-01	-9.2329106195385077e-02	-1.8868049598671293e-03	1.8606813383792516e-03	6.2590571953537628e-03	4.9902099360561326e-03	1.2688472592976298e-03
87                      	3.1427563640571127e-01	1.5530960902427576e-01	1.5896602738143550e-01	1.3556346031783106e-01	-2.2559275961290457e-02	1.5812273627912152e-01	-9.0341006120205999e-02	-1.8282091785798706e-03	2.4774290930190505e-03	7.5669114439702407e-03	6.2608848150041713e-03	1.3060266289660703e-03
88                      	3.1439485337695061e-01	1.5556208251514722e-01	1.5883277086180342e-01	1.2632153879896885e-01	-2.4205906020088735e-02	1.5052744481905758e-01	-8.7366675419573159e-02	-1.6353441733281105e-03	3.0372563742051199e-03	9.0506000812732718e-03	7.5625564148417554e-03	1.4880436664315157e-03
89                      	3.1506056428807117e-01	1.5628175599657915e-01	1.5877880829149199e-01	1.1645607289824066e-01	-2.5258645181126436e-02	1.4171471807936709e-01	-8.3486681630246765e-02	-1.2485261474564143e-03	3.4858381565996558e-03	1.0324660948989135e-02	8.6481686310942232e-03	1.6764923178949117e-03
90                      	3.1557896383645445e-01	1.5713649987648057e-01	1.5844246395997388e-01	1.0753780415868426e-01	-2.5303058658590914e-02	1.3284086281727517e-01	-7.9071960737933045e-02	-6.5298204174666133e-04	3.7909101297638522e-03	1.1090380214982013e-02	9.3361002372548581e-03	1.7542799777271541e-03
91                      	3.1544975309397855e-01	1.5781425112410780e-01	1.5763550196987075e-01	1.0013356016027362e-01	-2.4660583330401987e-02	1.2479414349067561e-01	-7.4727363410538802e-02	8.9374577118520049e-05	3.8989740229010321e-03	1.1161913276598587e-02	9.4799306612003247e-03	1.6819826153982610e-03
92                      	3.1455845780325736e-01	1.5815104462680196e-01	1.5640741317645537e-01	9.3761800217871602e-02	-2.4024506774024720e-02	1.1778630699189632e-01	-7.0905406882960514e-02	8.7181572517331675e-04	3.7871656275246936e-03	1.0816556288669609e-02	9.1954437718594975e-03	1.6211125168101108e-03
93                      	3.1305364675107145e-01	1.5811995497266490e-01	1.5493369177840652e-01	8.7836177400288581e-02	-2.3774310976410098e-02	1.1161048837669868e-01	-6.7692399676554396e-02	1.5931315971291771e-03	3.5255729705928264e-03	1.0469115700331939e-02	8.7601308207587974e-03	1.7089848795731435e-03
94                      	3.1140480093694139e-01	1.5787701598478215e-01	1.5352778495215924e-01	8.1686572669183860e-02	-2.4114465909994883e-02	1.0580103857917875e-01	-6.4957752244586817e-02	2.1746155163114584e-03	3.2033937764679465e-03	1.0170413060399655e-02	8.2886003066677746e-03	1.8818127537318810e-03